# vtk DataFile Version 3.0
Results
ASCII
DATASET UNSTRUCTURED_GRID
POINTS 3107 double
0 0 0.0
100 0 0.0
0 100 0.0
100 100 0.0
80 50 0.0
2 0 0.0
4 0 0.0
6 0 0.0
8 0 0.0
10 0 0.0
12 0 0.0
14 0 0.0
16 0 0.0
18 0 0.0
20 0 0.0
22 0 0.0
24 0 0.0
26 0 0.0
28 0 0.0
30 0 0.0
32 0 0.0
34 0 0.0
36 0 0.0
38 0 0.0
40 0 0.0
42 0 0.0
44 0 0.0
46 0 0.0
48 0 0.0
50 0 0.0
52 0 0.0
54 0 0.0
56 0 0.0
58 0 0.0
60 0 0.0
62 0 0.0
64 0 0.0
66 0 0.0
68 0 0.0
70 0 0.0
72 0 0.0
74 0 0.0
76 0 0.0
78 0 0.0
80 0 0.0
82 0 0.0
84 0 0.0
86 0 0.0
88 0 0.0
90 0 0.0
92 0 0.0
94 0 0.0
96 0 0.0
98 0 0.0
0 98 0.0
0 96 0.0
0 94 0.0
0 92 0.0
0 90 0.0
0 88 0.0
0 86 0.0
0 84 0.0
0 82 0.0
0 80 0.0
0 78 0.0
0 76 0.0
0 74 0.0
0 72 0.0
0 70 0.0
0 68 0.0
0 66 0.0
0 64 0.0
0 62 0.0
0 60 0.0
0 58 0.0
0 56 0.0
0 54 0.0
0 52 0.0
0 50 0.0
0 48 0.0
0 46 0.0
0 44 0.0
0 42 0.0
0 40 0.0
0 38 0.0
0 36 0.0
0 34 0.0
0 32 0.0
0 30 0.0
0 28 0.0
0 26 0.0
0 24 0.0
0 22 0.0
0 20 0.0
0 18 0.0
0 16 0.0
0 14 0.0
0 12 0.0
0 10 0.0
0 8 0.0
0 6 0.0
0 4 0.0
0 2 0.0
100 2 0.0
100 4 0.0
100 6 0.0
100 8 0.0
100 10 0.0
100 12 0.0
100 14 0.0
100 16 0.0
100 18 0.0
100 20 0.0
100 22 0.0
100 24 0.0
100 26 0.0
100 28 0.0
100 30 0.0
100 32 0.0
100 34 0.0
100 36 0.0
100 38 0.0
100 40 0.0
100 42 0.0
100 44 0.0
100 46 0.0
100 48 0.0
100 50 0.0
100 52 0.0
100 54 0.0
100 56 0.0
100 58 0.0
100 60 0.0
100 62 0.0
100 64 0.0
100 66 0.0
100 68 0.0
100 70 0.0
100 72 0.0
100 74 0.0
100 76 0.0
100 78 0.0
100 80 0.0
100 82 0.0
100 84 0.0
100 86 0.0
100 88 0.0
100 90 0.0
100 92 0.0
100 94 0.0
100 96 0.0
100 98 0.0
98 100 0.0
96 100 0.0
94 100 0.0
92 100 0.0
90 100 0.0
88 100 0.0
86 100 0.0
84 100 0.0
82 100 0.0
80 100 0.0
78 100 0.0
76 100 0.0
74 100 0.0
72 100 0.0
70 100 0.0
68 100 0.0
66 100 0.0
64 100 0.0
62 100 0.0
60 100 0.0
58 100 0.0
56 100 0.0
54 100 0.0
52 100 0.0
50 100 0.0
48 100 0.0
46 100 0.0
44 100 0.0
42 100 0.0
40 100 0.0
38 100 0.0
36 100 0.0
34 100 0.0
32 100 0.0
30 100 0.0
28 100 0.0
26 100 0.0
24 100 0.0
22 100 0.0
20 100 0.0
18 100 0.0
16 100 0.0
14 100 0.0
12 100 0.0
10 100 0.0
8 100 0.0
6 100 0.0
4 100 0.0
2 100 0.0
79.9344 51.9827 0.0
79.7379 53.9568 0.0
79.4114 55.9135 0.0
78.9563 57.8444 0.0
78.3745 59.741 0.0
77.6687 61.595 0.0
76.8419 63.3983 0.0
75.8977 65.143 0.0
74.8403 66.8215 0.0
73.6742 68.4264 0.0
72.4046 69.9507 0.0
71.0371 71.3879 0.0
69.5776 72.7314 0.0
68.0324 73.9756 0.0
66.4084 75.115 0.0
64.7127 76.1445 0.0
62.9526 77.0597 0.0
61.1359 77.8566 0.0
59.2705 78.5317 0.0
57.3646 79.082 0.0
55.4264 79.5052 0.0
53.4645 79.7993 0.0
51.4875 79.9631 0.0
49.504 79.9959 0.0
47.5226 79.8975 0.0
45.5521 79.6684 0.0
43.601 79.3096 0.0
41.6779 78.8226 0.0
39.7912 78.2096 0.0
37.9491 77.4732 0.0
36.1598 76.6167 0.0
34.4309 75.6438 0.0
32.7701 74.5587 0.0
31.1847 73.3663 0.0
29.6816 72.0717 0.0
28.2672 70.6806 0.0
26.948 69.1991 0.0
25.7295 67.6336 0.0
24.6171 65.991 0.0
23.6158 64.2784 0.0
22.7298 62.5035 0.0
21.9631 60.6738 0.0
21.3189 58.7975 0.0
20.8002 56.8827 0.0
20.4092 54.9378 0.0
20.1475 52.9714 0.0
20.0164 50.9919 0.0
20.0164 49.0081 0.0
20.1475 47.0286 0.0
20.4092 45.0622 0.0
20.8002 43.1173 0.0
21.3189 41.2025 0.0
21.9631 39.3262 0.0
22.7298 37.4965 0.0
23.6158 35.7216 0.0
24.6171 34.009 0.0
25.7295 32.3664 0.0
26.948 30.8009 0.0
28.2672 29.3194 0.0
29.6816 27.9283 0.0
31.1847 26.6337 0.0
32.7701 25.4413 0.0
34.4309 24.3562 0.0
36.1598 23.3833 0.0
37.9491 22.5268 0.0
39.7912 21.7904 0.0
41.6779 21.1774 0.0
43.601 20.6904 0.0
45.5521 20.3316 0.0
47.5226 20.1025 0.0
49.504 20.0041 0.0
51.4875 20.0369 0.0
53.4645 20.2007 0.0
55.4264 20.4948 0.0
57.3646 20.918 0.0
59.2705 21.4683 0.0
61.1359 22.1434 0.0
62.9526 22.9403 0.0
64.7127 23.8555 0.0
66.4084 24.885 0.0
68.0324 26.0244 0.0
69.5776 27.2686 0.0
71.0371 28.6121 0.0
72.4046 30.0493 0.0
73.6742 31.5736 0.0
74.8403 33.1785 0.0
75.8977 34.857 0.0
76.8419 36.6017 0.0
77.6687 38.405 0.0
78.3745 40.259 0.0
78.9563 42.1556 0.0
79.4114 44.0865 0.0
79.7379 46.0432 0.0
79.9344 48.0173 0.0
48.5936 78.3593 0.0
52.2098 21.8893 0.0
21.7638 47.9183 0.0
78.1182 52.8564 0.0
29.1955 68.8163 0.0
31.8319 28.5997 0.0
71.7949 31.7783 0.0
69.1438 70.7957 0.0
59.567 76.7352 0.0
77.0344 41.7144 0.0
38.1049 75.6877 0.0
41.4657 23.0677 0.0
63.2001 24.6954 0.0
23.1216 58.9987 0.0
24.7878 37.3201 0.0
74.8588 63.4529 0.0
36.3228 24.9435 0.0
78.3656 47.4001 0.0
74.9301 36.4847 0.0
32.9512 72.4701 0.0
46.5464 21.9543 0.0
27.8338 32.948 0.0
77.0229 58.2889 0.0
67.8151 27.9191 0.0
42.9435 77.4635 0.0
21.9435 53.5981 0.0
57.7912 22.8315 0.0
54.2262 78.0692 0.0
22.6497 42.8074 0.0
25.4438 64.3527 0.0
64.669 74.1612 0.0
71.7211 68.0682 0.0
76.4589 39.8475 0.0
75.1231 41.252 0.0
75.6638 43.1431 0.0
73.7452 42.6808 0.0
74.2985 44.5846 0.0
72.3726 44.1152 0.0
71.8187 42.2102 0.0
70.4459 43.6432 0.0
71.0006 45.5479 0.0
69.0737 45.076 0.0
68.519 43.1713 0.0
67.1468 44.6041 0.0
67.7015 46.5087 0.0
65.7747 46.0368 0.0
65.22 44.1321 0.0
63.8478 45.5649 0.0
64.4025 47.4695 0.0
62.4757 46.9976 0.0
61.921 45.0929 0.0
60.5488 46.5256 0.0
61.1036 48.4303 0.0
59.1767 47.9584 0.0
58.622 46.0537 0.0
57.2499 47.4864 0.0
57.8046 49.3911 0.0
55.8777 48.9192 0.0
55.323 47.0145 0.0
53.9509 48.4472 0.0
54.5056 50.3519 0.0
52.5787 49.88 0.0
52.024 47.9753 0.0
50.6519 49.408 0.0
51.2066 51.3127 0.0
49.2798 50.8408 0.0
48.725 48.9361 0.0
47.3529 50.3688 0.0
47.9076 52.2735 0.0
46.7982 48.4641 0.0
45.4261 49.8969 0.0
44.8713 47.9922 0.0
43.4992 49.4249 0.0
42.9445 47.5203 0.0
44.3166 46.0875 0.0
41.5724 48.953 0.0
42.1271 50.8577 0.0
42.3898 45.6156 0.0
43.7619 44.1829 0.0
40.2002 50.3857 0.0
40.7549 52.2904 0.0
41.8351 43.7109 0.0
43.2072 42.2782 0.0
38.8281 51.8185 0.0
39.3828 53.7231 0.0
41.2804 41.8063 0.0
42.6525 40.3735 0.0
44.5793 40.8455 0.0
44.0246 38.9408 0.0
45.9515 39.4127 0.0
45.3968 37.5081 0.0
47.3236 37.98 0.0
38.2734 49.9138 0.0
37.456 53.2512 0.0
38.0107 55.1559 0.0
39.9375 55.6278 0.0
38.5654 57.0605 0.0
40.4922 57.5325 0.0
39.1201 58.9652 0.0
41.0469 59.4371 0.0
40.7256 39.9016 0.0
39.3535 41.3343 0.0
46.7689 36.0753 0.0
48.6957 36.5473 0.0
39.6748 60.8699 0.0
41.6017 61.3418 0.0
36.6385 56.5886 0.0
44.842 35.6034 0.0
48.141 34.6426 0.0
50.0679 35.1146 0.0
38.7988 39.4297 0.0
37.4267 40.8624 0.0
40.2295 62.7745 0.0
42.1564 63.2465 0.0
43.5285 61.8137 0.0
44.0832 63.7184 0.0
45.4554 62.2857 0.0
46.0101 64.1904 0.0
47.3822 62.7576 0.0
47.9369 64.6623 0.0
49.3091 63.2296 0.0
49.8638 65.1342 0.0
51.2359 63.7015 0.0
51.7906 65.6062 0.0
53.1628 64.1734 0.0
53.7175 66.0781 0.0
55.0896 64.6454 0.0
54.5349 62.7407 0.0
56.4617 63.2126 0.0
48.4916 66.567 0.0
57.0164 65.1173 0.0
58.3886 63.6846 0.0
57.8339 61.7799 0.0
59.7607 62.2519 0.0
38.3027 62.3026 0.0
49.5132 33.2099 0.0
51.44 33.6818 0.0
51.9947 35.5865 0.0
53.3669 34.1538 0.0
42.7111 65.1511 0.0
53.9216 36.0584 0.0
55.2937 34.6257 0.0
59.206 60.3472 0.0
61.1329 60.8191 0.0
36.8719 38.9577 0.0
35.4998 40.3904 0.0
60.3154 64.1565 0.0
52.8121 32.2491 0.0
55.8484 36.5304 0.0
57.2206 35.0976 0.0
60.5781 58.9145 0.0
62.505 59.3864 0.0
38.2441 37.525 0.0
36.3172 37.053 0.0
37.6894 35.6203 0.0
57.7753 37.0023 0.0
59.1474 35.5696 0.0
58.5927 33.6649 0.0
60.5195 34.1368 0.0
61.0743 36.0415 0.0
62.4464 34.6088 0.0
61.9503 57.4817 0.0
63.8771 57.9537 0.0
64.4318 59.8583 0.0
65.804 58.4256 0.0
66.3587 60.3303 0.0
67.7308 58.8975 0.0
67.1761 56.9929 0.0
47.8783 39.8847 0.0
48.7543 61.3249 0.0
54.4763 37.9631 0.0
58.6513 58.4425 0.0
63.0011 36.5135 0.0
36.0545 42.2951 0.0
34.1277 41.8232 0.0
33.573 39.9185 0.0
32.2008 41.3512 0.0
32.7555 43.2559 0.0
63.3224 56.049 0.0
42.4191 58.0044 0.0
52.3453 67.5108 0.0
54.2722 67.9828 0.0
52.9 69.4155 0.0
47.5863 32.7379 0.0
38.8574 64.2073 0.0
36.9305 63.7353 0.0
48.9585 31.3052 0.0
47.0316 30.8333 0.0
37.4853 65.64 0.0
30.8287 42.784 0.0
31.3834 44.6886 0.0
69.103 57.4648 0.0
68.5482 55.5601 0.0
54.8269 69.8874 0.0
48.4037 29.4005 0.0
64.3732 35.0807 0.0
59.9648 32.2322 0.0
35.7625 35.1484 0.0
37.1347 33.7156 0.0
46.4769 28.9286 0.0
45.1048 30.3613 0.0
70.4751 56.0321 0.0
69.9204 54.1274 0.0
31.6461 39.4466 0.0
35.5584 65.1681 0.0
35.0037 63.2634 0.0
29.4566 44.2167 0.0
30.0113 46.1214 0.0
68.2855 60.8022 0.0
66.9134 62.2349 0.0
64.928 36.9854 0.0
67.9935 53.6555 0.0
61.629 37.9462 0.0
48.1703 47.0314 0.0
31.9381 46.5933 0.0
30.566 48.026 0.0
61.3956 55.5771 0.0
28.6391 47.5541 0.0
29.1938 49.4588 0.0
31.1207 49.9307 0.0
29.7486 51.3634 0.0
53.4548 71.3202 0.0
51.5279 70.8482 0.0
63.8185 33.1761 0.0
71.0298 57.9367 0.0
66.3001 35.5527 0.0
33.6316 64.6961 0.0
33.0768 62.7915 0.0
27.8217 50.8915 0.0
28.3764 52.7962 0.0
30.3033 53.2681 0.0
28.9311 54.7008 0.0
71.8472 54.5993 0.0
71.2925 52.6947 0.0
28.9018 42.312 0.0
36.1131 67.0727 0.0
38.04 67.5447 0.0
66.8548 37.4573 0.0
58.038 31.7602 0.0
59.4101 30.3275 0.0
57.4833 29.8556 0.0
62.7677 54.1443 0.0
42.6818 52.7623 0.0
40.4629 45.1437 0.0
39.0615 34.1876 0.0
38.5068 32.2829 0.0
30.858 55.1728 0.0
29.4859 56.6055 0.0
31.4127 57.0774 0.0
30.0406 58.5102 0.0
55.3816 71.7921 0.0
56.7537 70.3594 0.0
44.55 28.4567 0.0
68.8402 62.7069 0.0
67.4681 64.1396 0.0
52.0826 72.7529 0.0
50.1558 72.281 0.0
31.7047 64.2242 0.0
36.5799 31.811 0.0
47.849 27.4959 0.0
49.7759 27.9678 0.0
58.8554 28.4228 0.0
56.9286 27.9509 0.0
68.2269 36.0246 0.0
37.9521 30.3783 0.0
36.6678 68.9774 0.0
38.5947 69.4493 0.0
49.2212 26.0631 0.0
51.148 26.5351 0.0
67.6722 34.1199 0.0
27.559 56.1336 0.0
34.741 68.5055 0.0
68.7817 37.9293 0.0
65.4827 38.8901 0.0
34.449 61.3587 0.0
65.5413 63.6677 0.0
66.096 65.5723 0.0
40.4336 32.7549 0.0
32.2301 53.74 0.0
60.8408 53.6724 0.0
27.5297 43.7448 0.0
60.7823 28.8948 0.0
26.975 41.8401 0.0
57.3085 72.2641 0.0
58.6806 70.8313 0.0
73.2194 53.1666 0.0
72.6646 51.2619 0.0
70.7378 50.79 0.0
36.0252 29.9063 0.0
34.6008 31.2523 0.0
70.1538 36.4965 0.0
37.2225 70.8821 0.0
39.1494 71.354 0.0
40.5215 69.9213 0.0
41.0762 71.8259 0.0
42.4484 70.3932 0.0
43.0031 72.2979 0.0
44.3752 70.8652 0.0
44.9299 72.7698 0.0
26.4496 52.3242 0.0
25.8949 50.4196 0.0
55.9363 73.6968 0.0
50.7105 74.1856 0.0
73.7741 55.0713 0.0
68.0228 66.0443 0.0
66.6507 67.477 0.0
[...]
POINT_DATA 3107
VECTORS Deplacement double
2.43764e-18 -4.31371e-29 0.0
0.1 -2.30632e-06 0.0
2.44947e-18 -0.0805966 0.0
0.1 -0.080606 0.0
0.0509752 -0.0403079 0.0
0.00107523 -0.000130923 0.0
0.00218408 -0.000450606 0.0
0.00327074 -0.000992227 0.0
0.00442621 -0.0017382 0.0
0.00563451 -0.00268552 0.0
0.00689688 -0.00382554 0.0
0.00822722 -0.00514644 0.0
0.00963587 -0.00663224 0.0
0.0111523 -0.00824936 0.0
0.0127662 -0.0100161 0.0
0.0144988 -0.0118614 0.0
0.0163513 -0.0137639 0.0
0.0183312 -0.015705 0.0
0.0204409 -0.0176494 0.0
0.0226782 -0.0195591 0.0
0.0250385 -0.021401 0.0
0.027513 -0.0231407 0.0
0.0300907 -0.0247512 0.0
0.0327601 -0.0262103 0.0
0.0355122 -0.0274737 0.0
0.0383737 -0.0285343 0.0
0.0412221 -0.0293708 0.0
0.0441214 -0.0299696 0.0
0.0470551 -0.0303293 0.0
0.050011 -0.0304392 0.0
0.0529542 -0.0303222 0.0
0.0558808 -0.0299518 0.0
0.0587896 -0.0293358 0.0
0.0616425 -0.0285047 0.0
0.0644682 -0.0274399 0.0
0.0672271 -0.0261689 0.0
0.0698977 -0.0247283 0.0
0.0724792 -0.0231271 0.0
0.0749568 -0.02139 0.0
0.0773187 -0.0195519 0.0
0.0795516 -0.0176605 0.0
0.0816693 -0.0157065 0.0
0.0836517 -0.013765 0.0
0.0855096 -0.0118636 0.0
0.0872443 -0.0100203 0.0
0.088862 -0.0082681 0.0
0.090371 -0.00663805 0.0
0.0917861 -0.00515635 0.0
0.0931176 -0.00383206 0.0
0.0943862 -0.00270247 0.0
0.0955633 -0.00173522 0.0
0.0967239 -0.000994492 0.0
0.0978177 -0.000449338 0.0
0.0989229 -0.000131453 0.0
5.74704e-18 -0.0799485 0.0
6.56094e-18 -0.0792233 0.0
7.32444e-18 -0.0784191 0.0
8.03661e-18 -0.0775505 0.0
8.72954e-18 -0.0766277 0.0
9.37537e-18 -0.0756537 0.0
1.01053e-17 -0.0746296 0.0
1.07444e-17 -0.0735576 0.0
1.14748e-17 -0.0724411 0.0
1.22332e-17 -0.0712518 0.0
1.30103e-17 -0.0699823 0.0
1.38285e-17 -0.0686301 0.0
1.47164e-17 -0.0671886 0.0
1.56442e-17 -0.0656375 0.0
1.65969e-17 -0.0639725 0.0
1.7567e-17 -0.0621732 0.0
1.84955e-17 -0.0602295 0.0
1.94812e-17 -0.0581545 0.0
2.03927e-17 -0.0559311 0.0
2.1226e-17 -0.0535702 0.0
2.19486e-17 -0.0510877 0.0
2.25474e-17 -0.0484973 0.0
2.29971e-17 -0.045819 0.0
2.32861e-17 -0.0430805 0.0
2.33866e-17 -0.0403098 0.0
2.32859e-17 -0.0375371 0.0
2.30023e-17 -0.0347958 0.0
2.2552e-17 -0.0321155 0.0
2.19557e-17 -0.0295196 0.0
2.12262e-17 -0.0270315 0.0
2.03905e-17 -0.024669 0.0
1.94808e-17 -0.0224436 0.0
1.85266e-17 -0.0203606 0.0
1.75522e-17 -0.0184209 0.0
1.65804e-17 -0.0166202 0.0
1.56285e-17 -0.0149511 0.0
1.47098e-17 -0.0134032 0.0
1.38325e-17 -0.0119646 0.0
1.3001e-17 -0.0106226 0.0
1.22212e-17 -0.00936439 0.0
1.14787e-17 -0.00817738 0.0
1.07658e-17 -0.00705471 0.0
1.0082e-17 -0.00597391 0.0
9.39317e-18 -0.00495055 0.0
8.73047e-18 -0.00398075 0.0
8.06825e-18 -0.00305525 0.0
7.3036e-18 -0.00219015 0.0
6.54623e-18 -0.00138479 0.0
5.77076e-18 -0.00065861 0.0
0.1 -0.000659286 0.0
0.1 -0.00138198 0.0
0.1 -0.00218501 0.0
0.1 -0.00305086 0.0
0.1 -0.00397755 0.0
0.1 -0.00495542 0.0
0.1 -0.0059792 0.0
0.1 -0.00704935 0.0
0.1 -0.00817966 0.0
0.1 -0.00936385 0.0
0.1 -0.0106252 0.0
0.1 -0.0119724 0.0
0.1 -0.0134048 0.0
0.1 -0.0149557 0.0
0.1 -0.0166379 0.0
0.1 -0.0184391 0.0
0.1 -0.0203754 0.0
0.1 -0.0224577 0.0
0.1 -0.0246796 0.0
0.1 -0.0270402 0.0
0.1 -0.0295186 0.0
0.1 -0.032106 0.0
0.1 -0.034787 0.0
0.1 -0.0375282 0.0
0.1 -0.0402993 0.0
0.1 -0.0430701 0.0
0.1 -0.0458104 0.0
0.1 -0.0484912 0.0
0.1 -0.0510854 0.0
0.1 -0.0535706 0.0
0.1 -0.0559314 0.0
0.1 -0.0581565 0.0
0.1 -0.0602399 0.0
0.1 -0.0621809 0.0
0.1 -0.0639828 0.0
0.1 -0.0656531 0.0
0.1 -0.0672014 0.0
0.1 -0.0686409 0.0
0.1 -0.0699841 0.0
0.1 -0.0712439 0.0
0.1 -0.0724316 0.0
0.1 -0.0735571 0.0
0.1 -0.0746282 0.0
0.1 -0.0756492 0.0
0.1 -0.0766221 0.0
0.1 -0.0775427 0.0
0.1 -0.0784148 0.0
0.1 -0.0792296 0.0
0.1 -0.0799562 0.0
0.0989259 -0.0804798 0.0
0.0978408 -0.0801574 0.0
0.0967234 -0.0796091 0.0
0.0955712 -0.0788595 0.0
0.0943723 -0.0779109 0.0
0.0931134 -0.0767675 0.0
0.0917819 -0.0754458 0.0
0.0903663 -0.0739625 0.0
0.088855 -0.0723363 0.0
0.0872374 -0.0705897 0.0
0.0855048 -0.0687485 0.0
0.0836497 -0.0668415 0.0
0.0816673 -0.0649005 0.0
0.0795562 -0.062959 0.0
0.0773181 -0.061051 0.0
0.0749579 -0.0592103 0.0
0.0724829 -0.0574696 0.0
0.0699024 -0.055862 0.0
0.0672294 -0.0544151 0.0
0.064473 -0.0531476 0.0
0.0616559 -0.0520837 0.0
0.0587801 -0.0512542 0.0
0.0558733 -0.0506444 0.0
0.052946 -0.0502773 0.0
0.0500076 -0.0501636 0.0
0.0470649 -0.0502926 0.0
0.0441331 -0.0506593 0.0
0.0412364 -0.0512579 0.0
0.0383611 -0.052097 0.0
0.0355181 -0.0531682 0.0
0.0327718 -0.054413 0.0
0.0300912 -0.0558731 0.0
0.0275108 -0.0574839 0.0
0.0250397 -0.0592109 0.0
0.0226801 -0.0610472 0.0
0.0204384 -0.0629624 0.0
0.0183296 -0.0648901 0.0
0.0163473 -0.0668459 0.0
0.0144912 -0.0687554 0.0
0.0127557 -0.0705935 0.0
0.0111314 -0.0723321 0.0
0.0096239 -0.0739613 0.0
0.00823035 -0.075463 0.0
0.00689804 -0.0767771 0.0
0.00563263 -0.077916 0.0
0.00442838 -0.0788705 0.0
0.0032721 -0.0796155 0.0
0.0021613 -0.0801558 0.0
0.00108451 -0.0804742 0.0
0.0509727 -0.0403343 0.0
0.050964 -0.0403612 0.0
0.050948 -0.040385 0.0
0.0509257 -0.0404113 0.0
0.0508998 -0.0404356 0.0
0.050869 -0.040458 0.0
0.0508337 -0.040479 0.0
0.0507953 -0.0404978 0.0
0.0507546 -0.040514 0.0
0.0507107 -0.0405281 0.0
0.0506658 -0.0405396 0.0
0.050619 -0.0405487 0.0
0.0505714 -0.0405549 0.0
0.0505226 -0.0405587 0.0
0.0504726 -0.0405603 0.0
0.0504221 -0.0405599 0.0
0.0503705 -0.0405574 0.0
0.0503173 -0.0405551 0.0
0.0502666 -0.040552 0.0
0.0502124 -0.0405461 0.0
0.0501566 -0.0405428 0.0
0.0501016 -0.0405402 0.0
0.0500456 -0.0405394 0.0
0.0499901 -0.0405385 0.0
0.0499356 -0.0405391 0.0
0.049879 -0.0405402 0.0
0.0498237 -0.0405434 0.0
0.0497693 -0.040547 0.0
0.0497157 -0.0405506 0.0
0.0496626 -0.0405535 0.0
0.0496108 -0.0405557 0.0
0.04956 -0.0405566 0.0
0.0495086 -0.0405558 0.0
0.0494592 -0.0405532 0.0
0.0494109 -0.040548 0.0
0.0493634 -0.0405399 0.0
0.0493171 -0.0405292 0.0
0.0492724 -0.0405163 0.0
0.0492295 -0.0405006 0.0
0.04919 -0.0404833 0.0
0.0491525 -0.0404629 0.0
0.049119 -0.0404411 0.0
0.0490898 -0.0404174 0.0
0.0490655 -0.0403929 0.0
0.0490466 -0.0403673 0.0
0.0490335 -0.0403404 0.0
0.0490271 -0.0403134 0.0
0.0490269 -0.0402863 0.0
0.0490334 -0.0402594 0.0
0.0490462 -0.0402325 0.0
0.0490643 -0.0402054 0.0
0.0490876 -0.0401815 0.0
0.0491167 -0.0401584 0.0
0.0491497 -0.0401371 0.0
0.0491871 -0.0401165 0.0
0.0492267 -0.0400991 0.0
0.0492687 -0.0400841 0.0
0.0493134 -0.0400714 0.0
0.049359 -0.0400609 0.0
0.0494065 -0.0400535 0.0
0.0494553 -0.0400482 0.0
0.0495038 -0.0400452 0.0
0.0495535 -0.040045 0.0
0.0496049 -0.0400462 0.0
0.0496566 -0.0400486 0.0
0.0497086 -0.0400521 0.0
0.0497628 -0.0400565 0.0
0.0498165 -0.0400611 0.0
0.0498729 -0.0400639 0.0
0.0499278 -0.040066 0.0
0.0499836 -0.0400673 0.0
0.0500394 -0.0400673 0.0
0.0500951 -0.0400656 0.0
0.0501509 -0.0400633 0.0
0.0502052 -0.0400604 0.0
0.0502586 -0.0400569 0.0
0.0503121 -0.0400532 0.0
0.0503647 -0.0400506 0.0
0.0504166 -0.0400491 0.0
0.0504676 -0.0400484 0.0
0.0505182 -0.0400507 0.0
0.0505664 -0.0400547 0.0
0.0506146 -0.0400613 0.0
0.0506616 -0.0400705 0.0
0.0507071 -0.0400823 0.0
0.0507512 -0.0400966 0.0
0.0507921 -0.0401131 0.0
0.0508311 -0.0401322 0.0
0.0508669 -0.040153 0.0
0.0508977 -0.0401747 0.0
0.0509243 -0.0402001 0.0
0.050946 -0.0402253 0.0
0.0509619 -0.0402516 0.0
0.0509711 -0.0402785 0.0
0.0499645 -0.0405301 0.0
0.0500599 -0.0400766 0.0
0.0490895 -0.0402718 0.0
0.050908 -0.0403444 0.0
0.0493852 -0.0405167 0.0
0.0494691 -0.0400697 0.0
0.0506493 -0.0400914 0.0
0.0505636 -0.0405341 0.0
0.0502742 -0.0405411 0.0
0.0508567 -0.0401964 0.0
0.0496654 -0.0405399 0.0
0.0497563 -0.0400678 0.0
0.0503742 -0.0400627 0.0
0.0491522 -0.0404177 0.0
0.0492189 -0.0401393 0.0
0.0507684 -0.0404745 0.0
0.0496077 -0.0400592 0.0
0.0509152 -0.0402709 0.0
0.0507677 -0.0401353 0.0
0.0495094 -0.0405364 0.0
0.0499004 -0.0400748 0.0
0.0493329 -0.0400981 0.0
0.0508582 -0.0404146 0.0
0.0505159 -0.0400691 0.0
0.0498047 -0.0405343 0.0
0.0490979 -0.0403482 0.0
0.0502178 -0.0400706 0.0
0.0501231 -0.0405321 0.0
0.049129 -0.0402046 0.0
0.0492496 -0.040479 0.0
0.0504236 -0.0405436 0.0
0.0506513 -0.0405167 0.0
0.0508314 -0.0401736 0.0
0.0507907 -0.0401936 0.0
0.050814 -0.0402167 0.0
0.0507481 -0.0402134 0.0
0.0507708 -0.0402366 0.0
0.0507052 -0.0402327 0.0
0.050683 -0.0402105 0.0
0.0506405 -0.0402293 0.0
0.0506617 -0.0402513 0.0
0.0505976 -0.0402474 0.0
0.0505767 -0.0402261 0.0
0.0505343 -0.0402438 0.0
0.0505544 -0.0402648 0.0
0.0504916 -0.0402607 0.0
0.0504719 -0.0402404 0.0
0.0504296 -0.0402568 0.0
0.0504486 -0.0402769 0.0
0.0503871 -0.0402726 0.0
0.0503683 -0.0402531 0.0
0.0503261 -0.0402685 0.0
0.0503444 -0.0402878 0.0
0.0502838 -0.0402833 0.0
0.0502657 -0.0402644 0.0
0.0502237 -0.0402789 0.0
0.0502414 -0.0402976 0.0
0.0501816 -0.0402929 0.0
0.050164 -0.0402745 0.0
0.050122 -0.0402883 0.0
0.0501394 -0.0403066 0.0
0.05008 -0.0403019 0.0
0.0500627 -0.0402838 0.0
0.0500208 -0.0402972 0.0
0.050038 -0.0403153 0.0
0.0499788 -0.0403106 0.0
0.0499616 -0.0402925 0.0
0.0499195 -0.0403059 0.0
0.0499369 -0.040324 0.0
0.0499023 -0.0402877 0.0
0.0498602 -0.0403012 0.0
0.049843 -0.0402828 0.0
0.0498006 -0.0402964 0.0
0.0497834 -0.0402776 0.0
0.049826 -0.0402643 0.0
0.0497407 -0.0402913 0.0
0.0497581 -0.0403103 0.0
0.0497666 -0.0402588 0.0
0.0498094 -0.0402458 0.0
0.0496979 -0.0403055 0.0
0.0497157 -0.0403247 0.0
0.0497502 -0.0402399 0.0
0.0497931 -0.0402273 0.0
0.0496552 -0.0403202 0.0
0.0496735 -0.0403395 0.0
0.0497342 -0.040221 0.0
0.0497772 -0.040209 0.0
0.0498357 -0.0402152 0.0
0.0498198 -0.0401974 0.0
0.0498778 -0.0402033 0.0
0.0498618 -0.0401861 0.0
0.0499194 -0.0401917 0.0
0.0496372 -0.0403005 0.0
0.0496125 -0.0403354 0.0
0.0496314 -0.0403549 0.0
0.0496921 -0.0403584 0.0
0.0496505 -0.0403738 0.0
0.0497109 -0.0403768 0.0
0.0496699 -0.0403922 0.0
0.0497298 -0.0403946 0.0
0.0497186 -0.0402021 0.0
0.049675 -0.0402141 0.0
0.0499034 -0.0401751 0.0
0.0499606 -0.0401802 0.0
0.0496893 -0.0404098 0.0
0.0497488 -0.0404117 0.0
0.0495895 -0.0403709 0.0
0.0498462 -0.0401692 0.0
0.0499444 -0.0401642 0.0
0.0500013 -0.0401687 0.0
0.0496599 -0.0401947 0.0
0.0496156 -0.0402066 0.0
0.0497088 -0.0404268 0.0
0.0497677 -0.0404282 0.0
0.0498076 -0.0404139 0.0
0.049826 -0.04043 0.0
0.049866 -0.0404164 0.0
0.0498838 -0.0404323 0.0
0.049924 -0.0404195 0.0
0.0499412 -0.0404352 0.0
0.0499816 -0.0404231 0.0
0.0499984 -0.0404388 0.0
0.050039 -0.0404274 0.0
0.0500552 -0.0404432 0.0
0.0500962 -0.0404324 0.0
0.0501119 -0.0404485 0.0
0.0501533 -0.0404383 0.0
0.0501377 -0.0404214 0.0
0.0501952 -0.0404277 0.0
0.0499583 -0.0404504 0.0
0.0502103 -0.040445 0.0
0.0502527 -0.0404348 0.0
0.0502377 -0.0404169 0.0
0.0502958 -0.0404242 0.0
0.0496493 -0.0404257 0.0
0.0499848 -0.0401534 0.0
0.0500414 -0.0401571 0.0
0.0500584 -0.0401723 0.0
0.0500984 -0.04016 0.0
0.0497864 -0.040444 0.0
0.0501159 -0.0401753 0.0
0.0501557 -0.0401621 0.0
0.0502808 -0.0404056 0.0
0.0503394 -0.0404131 0.0
0.0496009 -0.0401865 0.0
0.0495559 -0.0401985 0.0
0.0503104 -0.0404428 0.0
0.0500811 -0.0401453 0.0
0.0501738 -0.0401776 0.0
0.0502135 -0.0401637 0.0
0.0503243 -0.0403937 0.0
0.0503837 -0.0404012 0.0
0.0496452 -0.0401753 0.0
0.0495867 -0.0401665 0.0
0.0496311 -0.0401561 0.0
0.0502322 -0.0401795 0.0
0.0502718 -0.0401647 0.0
0.0502527 -0.0401492 0.0
0.050311 -0.0401494 0.0
0.0503307 -0.0401654 0.0
0.0503699 -0.0401492 0.0
0.0503683 -0.0403813 0.0
0.0504284 -0.0403887 0.0
0.0504433 -0.0404094 0.0
0.0504887 -0.0403967 0.0
0.0505033 -0.0404181 0.0
0.0505495 -0.0404053 0.0
0.0505347 -0.0403833 0.0
0.0499358 -0.0402086 0.0
0.0499646 -0.0404068 0.0
0.0501337 -0.0401912 0.0
0.0502652 -0.0403868 0.0
0.0503903 -0.0401659 0.0
0.0495709 -0.0402192 0.0
0.0495105 -0.0402112 0.0
0.0494959 -0.0401898 0.0
0.0494496 -0.0402028 0.0
0.0494646 -0.0402248 0.0
0.0504127 -0.0403682 0.0
0.0497707 -0.0403798 0.0
0.0500712 -0.0404586 0.0
0.0501274 -0.0404642 0.0
0.0500869 -0.0404735 0.0
0.0499284 -0.0401488 0.0
0.0496692 -0.0404424 0.0
0.0496097 -0.0404421 0.0
0.0499686 -0.0401387 0.0
0.0499127 -0.0401338 0.0
0.0496301 -0.0404587 0.0
0.0494028 -0.0402166 0.0
0.0494183 -0.0402392 0.0
0.0505963 -0.0403915 0.0
0.0505809 -0.040369 0.0
0.0501426 -0.0404794 0.0
0.0499526 -0.0401245 0.0
0.0504296 -0.0401489 0.0
0.0502915 -0.0401342 0.0
0.0495731 -0.0401466 0.0
0.0496174 -0.040137 0.0
0.0498972 -0.0401194 0.0
0.0498569 -0.0401279 0.0
0.0506435 -0.0403769 0.0
0.0506275 -0.0403538 0.0
0.0494354 -0.0401807 0.0
0.0495705 -0.0404591 0.0
0.0495493 -0.0404418 0.0
0.0493557 -0.0402314 0.0
0.0493718 -0.0402545 0.0
0.0505636 -0.0404273 0.0
0.050517 -0.0404394 0.0
0.0504507 -0.0401663 0.0
0.0505646 -0.0403466 0.0
0.0503506 -0.0401823 0.0
0.0499444 -0.0402744 0.0
0.0494347 -0.0402616 0.0
0.0493889 -0.0402773 0.0
0.0503524 -0.0403613 0.0
0.0493252 -0.0402706 0.0
0.0493431 -0.0402939 0.0
0.0494069 -0.0402998 0.0
0.0493619 -0.0403168 0.0
0.0501024 -0.0404879 0.0
0.050047 -0.0404828 0.0
0.0504086 -0.0401324 0.0
0.0506585 -0.0404002 0.0
0.05049 -0.0401485 0.0
0.0495101 -0.0404597 0.0
0.0494882 -0.0404415 0.0
0.0492973 -0.0403113 0.0
0.0493171 -0.0403345 0.0
0.0493816 -0.0403392 0.0
0.0493378 -0.0403571 0.0
0.050691 -0.0403613 0.0
0.0506742 -0.0403377 0.0
0.0493405 -0.0402081 0.0
0.0495915 -0.0404755 0.0
0.0496503 -0.0404744 0.0
0.0505119 -0.0401667 0.0
0.0502339 -0.0401345 0.0
0.0502723 -0.0401199 0.0
0.0502154 -0.0401206 0.0
0.0503965 -0.0403477 0.0
0.0497759 -0.040329 0.0
0.0497069 -0.0402529 0.0
0.0496748 -0.0401464 0.0
0.049661 -0.0401281 0.0
0.049402 -0.040361 0.0
0.0493592 -0.0403792 0.0
0.049423 -0.0403822 0.0
0.0493811 -0.0404006 0.0
0.0501576 -0.0404942 0.0
0.0501982 -0.0404866 0.0
0.0498419 -0.040113 0.0
0.0505768 -0.0404494 0.0
0.0505301 -0.0404608 0.0
0.0500628 -0.0404963 0.0
0.0500076 -0.0404921 0.0
0.0494488 -0.0404601 0.0
0.0496042 -0.040118 0.0
0.0499369 -0.040111 0.0
0.049992 -0.0401151 0.0
0.0502536 -0.0401065 0.0
0.0501973 -0.0401076 0.0
0.0505514 -0.0401482 0.0
0.0496475 -0.04011 0.0
0.0496121 -0.040491 0.0
0.0496702 -0.0404891 0.0
0.0499761 -0.0401024 0.0
0.050031 -0.0401055 0.0
0.0505289 -0.04013 0.0
0.0492944 -0.0403758 0.0
0.0495533 -0.0404931 0.0
0.050574 -0.0401673 0.0
0.0504719 -0.0401845 0.0
0.0495281 -0.0404236 0.0
0.0504712 -0.0404507 0.0
0.0504842 -0.0404712 0.0
0.0497177 -0.0401373 0.0
0.0494452 -0.0403435 0.0
0.050336 -0.0403415 0.0
0.0492925 -0.0402232 0.0
0.0503104 -0.0401046 0.0
0.0492777 -0.0401992 0.0
0.0502128 -0.0405019 0.0
0.0502538 -0.0404949 0.0
0.0507387 -0.0403449 0.0
0.0507209 -0.0403208 0.0
0.0506563 -0.0403144 0.0
0.0495912 -0.0400991 0.0
0.0495458 -0.040106 0.0
0.0506137 -0.0401481 0.0
0.0496323 -0.0405055 0.0
0.0496896 -0.040503 0.0
0.0497277 -0.0404877 0.0
0.0497463 -0.040501 0.0
0.0497845 -0.0404868 0.0
0.0498025 -0.0404997 0.0
0.0498409 -0.0404867 0.0
0.0498583 -0.0404992 0.0
0.0492518 -0.0403294 0.0
0.0492319 -0.0403054 0.0
0.0501725 -0.0405086 0.0
0.0500236 -0.0405048 0.0
0.0507552 -0.0403693 0.0
0.0505426 -0.0404822 0.0
0.0504968 -0.0404918 0.0
0.0504392 -0.0404807 0.0
0.0504519 -0.0405004 0.0
0.050395 -0.0404894 0.0
0.050268 -0.040511 0.0
0.0497645 -0.0405134 0.0
0.050637 -0.0401681 0.0
0.050702 -0.0402972 0.0
0.0507674 -0.0403031 0.0
0.049482 -0.0401684 0.0
0.0494223 -0.0401582 0.0
0.0494688 -0.0401469 0.0
0.0494714 -0.0404782 0.0
0.0494261 -0.0404411 0.0
0.0493866 -0.0404602 0.0
0.0493631 -0.0404403 0.0
0.0503094 -0.0405044 0.0
0.0502395 -0.0404786 0.0
0.050159 -0.0401207 0.0
0.049848 -0.0404 0.0
0.0506243 -0.040437 0.0
0.050637 -0.0404598 0.0
0.0498684 -0.0402513 0.0
0.0503797 -0.0403275 0.0
0.0504408 -0.0403335 0.0
0.0498012 -0.0401207 0.0
0.0497866 -0.0401053 0.0
0.049827 -0.0400985 0.0
0.0502925 -0.040355 0.0
0.0498968 -0.0404874 0.0
0.0493746 -0.040171 0.0
0.0493622 -0.0401478 0.0
0.0500474 -0.0401181 0.0
0.0500861 -0.0401073 0.0
0.049732 -0.0401549 0.0
0.049823 -0.0404732 0.0
0.0499914 -0.0404788 0.0
0.0502759 -0.0403357 0.0
0.0502329 -0.040349 0.0
0.0497743 -0.0401455 0.0
0.0499687 -0.0405017 0.0
0.0504081 -0.0405081 0.0
0.0499211 -0.040098 0.0
0.0502353 -0.0400941 0.0
0.0501796 -0.0400957 0.0
0.0503226 -0.040521 0.0
0.0500779 -0.0405091 0.0
0.0500369 -0.0405187 0.0
0.050463 -0.0405198 0.0
0.0506844 -0.0404467 0.0
0.0496352 -0.0400926 0.0
0.0493148 -0.0401615 0.0
0.0507475 -0.0402792 0.0
0.0505965 -0.0401872 0.0
0.0506375 -0.0402916 0.0
0.0505925 -0.0403085 0.0
0.0504234 -0.0403128 0.0
0.0504851 -0.0403185 0.0
0.0494445 -0.0404028 0.0
0.0496901 -0.0401029 0.0
0.0496774 -0.0400864 0.0
0.0503818 -0.0404705 0.0
0.0503383 -0.0404793 0.0
0.0502161 -0.0403302 0.0
0.0501735 -0.0403435 0.0
0.0501901 -0.040362 0.0
0.0501311 -0.0403565 0.0
0.0501476 -0.0403746 0.0
0.0500889 -0.0403692 0.0
0.0500721 -0.0403513 0.0
0.0500302 -0.0403643 0.0
0.0500471 -0.0403818 0.0
0.0499886 -0.0403772 0.0
0.0499715 -0.0403597 0.0
0.04993 -0.040373 0.0
0.0499125 -0.0403554 0.0
0.0498711 -0.0403691 0.0
0.0498533 -0.0403513 0.0
0.0494859 -0.0403849 0.0
0.0500145 -0.0400939 0.0
0.0491877 -0.0403238 0.0
0.0492091 -0.040348 0.0
0.0497715 -0.0400907 0.0
0.0508015 -0.0403512 0.0
0.0508281 -0.0403755 0.0
0.0507699 -0.0403928 0.0
0.0498041 -0.0400826 0.0
0.0495778 -0.0400807 0.0
0.0492318 -0.0402145 0.0
0.0492447 -0.0402393 0.0
0.0492182 -0.0401896 0.0
0.0505529 -0.0405018 0.0
0.0507658 -0.0401724 0.0
0.0491747 -0.0402275 0.0
0.0491956 -0.0402562 0.0
0.0508112 -0.040285 0.0
0.050832 -0.0403093 0.0
0.0492913 -0.0401375 0.0
0.050836 -0.0402408 0.0
0.0491713 -0.0402984 0.0
0.0506768 -0.0401506 0.0
0.050664 -0.0401284 0.0
0.0493491 -0.0401247 0.0
0.0496524 -0.0405182 0.0
0.0495972 -0.0405218 0.0
0.0491239 -0.0403181 0.0
0.0506074 -0.0404953 0.0
0.0493252 -0.0404597 0.0
0.0493013 -0.0404389 0.0
0.049347 -0.0404811 0.0
0.0491333 -0.0402502 0.0
0.0507055 -0.0404719 0.0
0.0492877 -0.0401123 0.0
0.0493934 -0.0401098 0.0
0.0493756 -0.0400853 0.0
0.0494364 -0.0400989 0.0
0.0494516 -0.0401216 0.0
0.0507007 -0.0401708 0.0
0.0507901 -0.0402607 0.0
0.0507249 -0.0401912 0.0
0.0507263 -0.0402557 0.0
0.0506187 -0.0402079 0.0
0.0505138 -0.0402233 0.0
0.0504518 -0.0402207 0.0
0.0506179 -0.0402692 0.0
0.0505109 -0.0402815 0.0
0.050493 -0.0402035 0.0
0.0504102 -0.0402372 0.0
0.0503492 -0.0402342 0.0
0.0503905 -0.0402182 0.0
0.0503299 -0.0402158 0.0
0.0502888 -0.0402312 0.0
0.0502699 -0.0402133 0.0
0.050229 -0.0402281 0.0
0.0502106 -0.0402107 0.0
0.0501697 -0.0402249 0.0
0.0501878 -0.0402424 0.0
0.0501285 -0.0402387 0.0
0.0501108 -0.0402214 0.0
0.0500696 -0.0402348 0.0
0.0500523 -0.0402176 0.0
0.050011 -0.0402305 0.0
0.0500281 -0.040248 0.0
0.0499693 -0.0402434 0.0
0.0499525 -0.0402259 0.0
0.0500932 -0.0402045 0.0
0.050035 -0.0402008 0.0
0.0500757 -0.0401881 0.0
0.0503105 -0.0401981 0.0
0.0505554 -0.0402056 0.0
0.0504672 -0.0402975 0.0
0.0504055 -0.0402925 0.0
0.0503016 -0.0403024 0.0
0.0502265 -0.0405165 0.0
0.0501877 -0.0405235 0.0
0.0492608 -0.0402636 0.0
0.049895 -0.0403376 0.0
0.0493402 -0.0404196 0.0
0.0492768 -0.0404173 0.0
0.0492429 -0.0404387 0.0
0.049766 -0.0404731 0.0
0.0500148 -0.040454 0.0
0.0495768 -0.0405078 0.0
0.0495147 -0.040515 0.0
0.0495279 -0.0401571 0.0
0.0495142 -0.0401358 0.0
0.04941 -0.0401347 0.0
0.049982 -0.0405133 0.0
0.0499284 -0.0405114 0.0
0.0505024 -0.0403398 0.0
0.0505189 -0.0403615 0.0
0.0501046 -0.0402702 0.0
0.0494936 -0.0404959 0.0
0.0494561 -0.0405145 0.0
0.0495318 -0.040477 0.0
0.0500082 -0.0401285 0.0
0.0498202 -0.0405114 0.0
0.0501378 -0.0401473 0.0
0.0493084 -0.0402471 0.0
0.0496805 -0.0402861 0.0
0.0496198 -0.0402805 0.0
0.0495761 -0.0402952 0.0
0.0495587 -0.0402746 0.0
0.0496029 -0.0402602 0.0
0.0495419 -0.0402536 0.0
0.0495143 -0.0402896 0.0
0.0495323 -0.0403106 0.0
0.0502674 -0.0404526 0.0
0.0502251 -0.0404619 0.0
0.0495866 -0.0402398 0.0
0.0501176 -0.0405017 0.0
0.0505919 -0.0401295 0.0
0.0505666 -0.0401126 0.0
0.0505065 -0.0401131 0.0
0.050548 -0.040094 0.0
0.0504842 -0.0400978 0.0
0.049689 -0.0401648 0.0
0.0497467 -0.0401727 0.0
0.0504575 -0.0403544 0.0
0.0503298 -0.0401185 0.0
0.0503678 -0.0401022 0.0
0.0503493 -0.0400891 0.0
0.0504067 -0.0400856 0.0
0.0501835 -0.0404708 0.0
0.0495069 -0.0404047 0.0
0.0503518 -0.0404972 0.0
0.050388 -0.0401168 0.0
0.0494036 -0.0404212 0.0
0.0494114 -0.0404791 0.0
0.0494333 -0.0404974 0.0