# vtk DataFile Version 3.0
Resultats FEM Traction Composite
ASCII
DATASET UNSTRUCTURED_GRID
POINTS 8741 double
-5.66658e-13 85.0934 0.0
0 0 0.0
114.301 176 0.0
-5.56e-13 266.907 0.0
0 649 0.0
395.082 649 0.0
541.164 643 0.0
540.918 649 0.0
868 649 0.0
868 0 0.0
525.057 -8.7752e-13 0.0
535.838 47 0.0
330.943 2.07123e-12 0.0
236.746 -1.30029e-12 0.0
243 32 0.0
79.2536 1.91669e-12 0.0
364.291 189 0.0
728.692 138 0.0
567.837 280 0.0
794.21 325 0.0
264.062 347 0.0
197.622 551 0.0
421.187 505 0.0
629.107 482 0.0
836.088 552 0.0
0 74.4568 0.0
0 63.8201 0.0
0 53.1834 0.0
0 42.5467 0.0
0 31.91 0.0
0 21.2734 0.0
0 10.6367 0.0
10.3256 83.312 0.0
20.7857 82.6996 0.0
31.2486 83.264 0.0
41.5822 84.9979 0.0
51.6563 87.8797 0.0
61.3437 91.8728 0.0
70.5222 96.9269 0.0
79.0762 102.978 0.0
86.8977 109.951 0.0
93.8881 117.756 0.0
99.9591 126.296 0.0
105.034 135.463 0.0
109.05 145.141 0.0
111.955 155.209 0.0
113.712 165.538 0.0
113.712 186.462 0.0
111.955 196.791 0.0
109.05 206.859 0.0
105.034 216.537 0.0
99.9591 225.704 0.0
93.8881 234.244 0.0
86.8977 242.049 0.0
79.0762 249.022 0.0
70.5222 255.073 0.0
61.3437 260.127 0.0
51.6563 264.12 0.0
41.5822 267.002 0.0
31.2486 268.736 0.0
20.7857 269.3 0.0
10.3256 268.688 0.0
0 637.06 0.0
0 625.119 0.0
0 613.179 0.0
0 601.238 0.0
0 589.298 0.0
0 577.357 0.0
0 565.417 0.0
0 553.477 0.0
0 541.536 0.0
0 529.596 0.0
0 517.655 0.0
0 505.715 0.0
0 493.775 0.0
0 481.834 0.0
0 469.894 0.0
0 457.953 0.0
0 446.013 0.0
0 434.072 0.0
0 422.132 0.0
0 410.192 0.0
0 398.251 0.0
0 386.311 0.0
0 374.37 0.0
0 362.43 0.0
0 350.489 0.0
0 338.549 0.0
0 326.609 0.0
0 314.668 0.0
0 302.728 0.0
0 290.787 0.0
0 278.847 0.0
382.736 649 0.0
370.39 649 0.0
358.043 649 0.0
345.697 649 0.0
333.351 649 0.0
321.004 649 0.0
308.658 649 0.0
296.312 649 0.0
283.965 649 0.0
271.619 649 0.0
259.273 649 0.0
246.926 649 0.0
234.58 649 0.0
222.234 649 0.0
209.887 649 0.0
197.541 649 0.0
185.195 649 0.0
172.848 649 0.0
160.502 649 0.0
148.156 649 0.0
135.81 649 0.0
123.463 649 0.0
111.117 649 0.0
98.7706 649 0.0
86.4242 649 0.0
74.0779 649 0.0
61.7316 649 0.0
49.3853 649 0.0
37.039 649 0.0
24.6926 649 0.0
12.3463 649 0.0
394.849 641.636 0.0
395.357 634.286 0.0
396.601 627.025 0.0
398.57 619.925 0.0
401.242 613.06 0.0
404.592 606.498 0.0
408.585 600.306 0.0
413.18 594.547 0.0
418.33 589.279 0.0
423.985 584.556 0.0
430.086 580.426 0.0
436.571 576.93 0.0
443.375 574.104 0.0
450.429 571.977 0.0
457.661 570.57 0.0
464.997 569.897 0.0
472.365 569.966 0.0
479.688 570.775 0.0
486.892 572.317 0.0
493.905 574.575 0.0
500.655 577.527 0.0
507.074 581.143 0.0
513.097 585.387 0.0
518.662 590.214 0.0
523.714 595.577 0.0
528.201 601.421 0.0
532.077 607.686 0.0
535.304 614.309 0.0
537.848 621.223 0.0
539.684 628.358 0.0
540.793 635.642 0.0
541.16 643.751 0.0
541.149 644.502 0.0
541.13 645.252 0.0
541.103 646.003 0.0
541.068 646.753 0.0
541.026 647.502 0.0
540.975 648.251 0.0
857.779 649 0.0
847.557 649 0.0
837.336 649 0.0
827.115 649 0.0
816.893 649 0.0
806.672 649 0.0
796.451 649 0.0
786.229 649 0.0
776.008 649 0.0
765.787 649 0.0
755.565 649 0.0
745.344 649 0.0
735.123 649 0.0
724.902 649 0.0
714.68 649 0.0
704.459 649 0.0
694.238 649 0.0
684.016 649 0.0
673.795 649 0.0
663.574 649 0.0
653.352 649 0.0
643.131 649 0.0
632.91 649 0.0
622.688 649 0.0
612.467 649 0.0
602.246 649 0.0
592.024 649 0.0
581.803 649 0.0
571.582 649 0.0
561.36 649 0.0
551.139 649 0.0
868 13.5208 0.0
868 27.0417 0.0
868 40.5625 0.0
868 54.0833 0.0
868 67.6042 0.0
868 81.125 0.0
868 94.6458 0.0
868 108.167 0.0
868 121.688 0.0
868 135.208 0.0
868 148.729 0.0
868 162.25 0.0
868 175.771 0.0
868 189.292 0.0
868 202.812 0.0
868 216.333 0.0
868 229.854 0.0
868 243.375 0.0
868 256.896 0.0
868 270.417 0.0
868 283.938 0.0
868 297.458 0.0
868 310.979 0.0
868 324.5 0.0
868 338.021 0.0
868 351.542 0.0
868 365.062 0.0
868 378.583 0.0
868 392.104 0.0
868 405.625 0.0
868 419.146 0.0
868 432.667 0.0
868 446.188 0.0
868 459.708 0.0
868 473.229 0.0
868 486.75 0.0
868 500.271 0.0
868 513.792 0.0
868 527.312 0.0
868 540.833 0.0
868 554.354 0.0
868 567.875 0.0
868 581.396 0.0
868 594.917 0.0
868 608.438 0.0
868 621.958 0.0
868 635.479 0.0
535.774 0 0.0
546.491 0 0.0
557.208 0 0.0
567.925 0 0.0
578.642 0 0.0
589.359 0 0.0
600.076 0 0.0
610.793 0 0.0
621.51 0 0.0
632.227 0 0.0
642.944 0 0.0
653.661 0 0.0
664.378 0 0.0
675.094 0 0.0
685.811 0 0.0
696.528 0 0.0
707.245 0 0.0
717.962 0 0.0
728.679 0 0.0
739.396 0 0.0
750.113 0 0.0
760.83 0 0.0
771.547 0 0.0
782.264 0 0.0
792.981 0 0.0
803.698 0 0.0
814.415 0 0.0
825.132 0 0.0
835.849 0 0.0
846.566 0 0.0
857.283 0 0.0
527.551 5.54298 0.0
529.728 11.2177 0.0
531.583 17.006 0.0
533.108 22.8897 0.0
534.3 28.8499 0.0
535.153 34.8678 0.0
535.667 40.9243 0.0
535.159 59.0813 0.0
533.131 71.0105 0.0
529.779 82.6374 0.0
525.146 93.8155 0.0
519.29 104.404 0.0
512.284 114.27 0.0
504.217 123.289 0.0
495.19 131.348 0.0
485.318 138.344 0.0
474.723 144.19 0.0
463.541 148.813 0.0
451.911 152.154 0.0
439.979 154.171 0.0
427.898 154.838 0.0
415.817 154.148 0.0
403.89 152.108 0.0
392.266 148.745 0.0
381.092 144.101 0.0
370.509 138.235 0.0
360.65 131.22 0.0
351.638 123.144 0.0
343.589 114.11 0.0
336.602 104.231 0.0
330.765 93.6309 0.0
326.153 82.4439 0.0
322.824 70.8107 0.0
320.818 58.8777 0.0
320.162 46.7951 0.0
320.864 34.7151 0.0
322.915 22.7898 0.0
326.289 11.1693 0.0
248.521 0 0.0
260.296 0 0.0
272.07 0 0.0
283.845 0 0.0
295.619 0 0.0
307.394 0 0.0
319.169 0 0.0
238.198 3.83512 0.0
239.463 7.73579 0.0
240.539 11.6929 0.0
241.422 15.6973 0.0
242.111 19.7397 0.0
242.605 23.8106 0.0
242.901 27.9005 0.0
242.484 41.3512 0.0
240.942 50.5888 0.0
238.394 59.6008 0.0
234.87 68.2777 0.0
230.412 76.5142 0.0
225.075 84.2103 0.0
218.924 91.2725 0.0
212.034 97.6153 0.0
204.487 103.161 0.0
196.376 107.844 0.0
187.799 111.605 0.0
178.861 114.4 0.0
169.669 116.195 0.0
160.336 116.968 0.0
150.974 116.709 0.0
141.697 115.422 0.0
132.619 113.122 0.0
123.848 109.837 0.0
115.492 105.608 0.0
107.653 100.485 0.0
100.424 94.53 0.0
93.8943 87.8163 0.0
88.1428 80.4249 0.0
83.2395 72.4458 0.0
79.2437 63.9756 0.0
76.204 55.1172 0.0
74.1572 45.9782 0.0
73.1284 36.6695 0.0
73.1298 27.3042 0.0
74.1616 17.9958 0.0
76.2111 8.85742 0.0
9.9067 0 0.0
19.8134 0 0.0
29.7201 0 0.0
39.6268 0 0.0
49.5335 0 0.0
59.4402 0 0.0
69.3469 0 0.0
363.761 198.438 0.0
362.178 207.757 0.0
359.561 216.84 0.0
355.944 225.573 0.0
351.371 233.846 0.0
345.902 241.555 0.0
339.603 248.603 0.0
332.555 254.902 0.0
324.846 260.371 0.0
316.573 264.944 0.0
307.84 268.561 0.0
298.757 271.178 0.0
289.438 272.761 0.0
280 273.291 0.0
270.562 272.761 0.0
261.243 271.178 0.0
252.16 268.561 0.0
243.427 264.944 0.0
235.154 260.371 0.0
227.445 254.902 0.0
220.397 248.603 0.0
214.098 241.555 0.0
208.629 233.846 0.0
204.056 225.573 0.0
200.439 216.84 0.0
197.822 207.757 0.0
196.239 198.438 0.0
195.709 189 0.0
196.239 179.562 0.0
197.822 170.243 0.0
200.439 161.16 0.0
204.056 152.427 0.0
208.629 144.154 0.0
214.098 136.445 0.0
220.397 129.397 0.0
227.445 123.098 0.0
235.154 117.629 0.0
243.427 113.056 0.0
252.16 109.439 0.0
261.243 106.822 0.0
270.562 105.239 0.0
280 104.709 0.0
289.438 105.239 0.0
298.757 106.822 0.0
307.84 109.439 0.0
316.573 113.056 0.0
324.846 117.629 0.0
332.555 123.098 0.0
339.603 129.397 0.0
345.902 136.445 0.0
351.371 144.154 0.0
355.944 152.427 0.0
359.561 161.16 0.0
362.178 170.243 0.0
363.761 179.562 0.0
728.091 148.714 0.0
726.293 159.294 0.0
723.322 169.605 0.0
719.216 179.519 0.0
714.025 188.911 0.0
707.815 197.663 0.0
700.665 205.665 0.0
692.663 212.815 0.0
683.911 219.025 0.0
674.519 224.216 0.0
664.605 228.322 0.0
654.294 231.293 0.0
643.714 233.091 0.0
633 233.692 0.0
622.286 233.091 0.0
611.706 231.293 0.0
601.395 228.322 0.0
591.481 224.216 0.0
582.089 219.025 0.0
573.337 212.815 0.0
565.335 205.665 0.0
558.185 197.663 0.0
551.975 188.911 0.0
546.784 179.519 0.0
542.678 169.605 0.0
539.707 159.294 0.0
537.909 148.714 0.0
537.308 138 0.0
537.909 127.286 0.0
539.707 116.706 0.0
542.678 106.395 0.0
546.784 96.4807 0.0
551.975 87.0887 0.0
558.185 78.3369 0.0
565.335 70.3354 0.0
573.337 63.1848 0.0
582.089 56.9751 0.0
591.481 51.7843 0.0
601.395 47.6777 0.0
611.706 44.707 0.0
622.286 42.9095 0.0
633 42.3078 0.0
643.714 42.9095 0.0
654.294 44.707 0.0
664.605 47.6777 0.0
674.519 51.7843 0.0
683.911 56.9751 0.0
692.663 63.1848 0.0
700.665 70.3354 0.0
707.815 78.3369 0.0
714.025 87.0887 0.0
719.216 96.4807 0.0
723.322 106.395 0.0
726.293 116.706 0.0
728.091 127.286 0.0
567.221 290.954 0.0
565.384 301.771 0.0
562.346 312.313 0.0
558.148 322.45 0.0
552.841 332.052 0.0
546.492 341 0.0
539.181 349.181 0.0
531 356.492 0.0
522.052 362.841 0.0
512.45 368.148 0.0
502.313 372.346 0.0
491.771 375.384 0.0
480.954 377.221 0.0
470 377.837 0.0
459.046 377.221 0.0
448.229 375.384 0.0
437.687 372.346 0.0
427.55 368.148 0.0
417.948 362.841 0.0
409 356.492 0.0
400.819 349.181 0.0
393.508 341 0.0
387.159 332.052 0.0
381.852 322.45 0.0
377.654 312.313 0.0
374.616 301.771 0.0
372.779 290.954 0.0
372.163 280 0.0
372.779 269.046 0.0
374.616 258.229 0.0
377.654 247.687 0.0
381.852 237.55 0.0
387.159 227.948 0.0
393.508 219 0.0
400.819 210.819 0.0
409 203.508 0.0
417.948 197.159 0.0
427.55 191.852 0.0
437.687 187.654 0.0
448.229 184.616 0.0
459.046 182.779 0.0
470 182.163 0.0
480.954 182.779 0.0
491.771 184.616 0.0
502.313 187.654 0.0
512.45 191.852 0.0
522.052 197.159 0.0
531 203.508 0.0
539.181 210.819 0.0
546.492 219 0.0
552.841 227.948 0.0
558.148 237.55 0.0
562.346 247.687 0.0
565.384 258.229 0.0
567.221 269.046 0.0
793.612 335.66 0.0
791.823 346.186 0.0
788.867 356.446 0.0
784.782 366.31 0.0
779.617 375.655 0.0
773.438 384.363 0.0
766.324 392.324 0.0
758.363 399.438 0.0
749.655 405.617 0.0
740.31 410.782 0.0
730.446 414.867 0.0
720.186 417.823 0.0
709.66 419.612 0.0
699 420.21 0.0
688.34 419.612 0.0
677.814 417.823 0.0
667.554 414.867 0.0
657.69 410.782 0.0
648.345 405.617 0.0
639.637 399.438 0.0
631.676 392.324 0.0
624.562 384.363 0.0
618.383 375.655 0.0
613.218 366.31 0.0
609.133 356.446 0.0
606.177 346.186 0.0
[...]
POINT_DATA 8741
VECTORS Deplacement double
3.71191e-16 -0.348467 0.0
1.10846e-16 5.53506e-27 0.0
0.0869647 -0.36021 0.0
4.33391e-16 -0.365388 0.0
1.9006e-17 -1.36004 0.0
2.00027 -1.29934 0.0
2.12015 -1.14028 0.0
2.1269 -1.14556 0.0
4.34 -2.33611 0.0
4.34 0.744911 0.0
1.76365 -0.292462 0.0
1.82095 -0.312383 0.0
1.65021 -0.143909 0.0
0.760342 0.0519724 0.0
0.750537 0.0427501 0.0
0.683163 -0.0241501 0.0
1.39995 -0.309458 0.0
2.51285 -0.646498 0.0
2.17867 -0.704714 0.0
3.05708 -1.05105 0.0
0.828212 -0.675905 0.0
0.432186 -0.976846 0.0
1.59183 -1.02745 0.0
2.46655 -0.961161 0.0
3.69815 -1.76619 0.0
7.89643e-17 -0.339567 0.0
1.25373e-16 -0.312282 0.0
1.54168e-16 -0.273019 0.0
1.77044e-16 -0.22337 0.0
1.91839e-16 -0.168913 0.0
2.02345e-16 -0.112829 0.0
2.12276e-16 -0.0567461 0.0
0.0146144 -0.346317 0.0
0.0267207 -0.344877 0.0
0.037681 -0.343682 0.0
0.0479248 -0.342667 0.0
0.0574864 -0.341724 0.0
0.0661198 -0.340719 0.0
0.0734156 -0.339611 0.0
0.0787921 -0.338532 0.0
0.0820074 -0.337966 0.0
0.0829514 -0.338066 0.0
0.0829038 -0.339256 0.0
0.0828404 -0.341585 0.0
0.0833803 -0.345037 0.0
0.084452 -0.349407 0.0
0.0857619 -0.354539 0.0
0.0876649 -0.365904 0.0
0.087809 -0.371208 0.0
0.0877012 -0.375997 0.0
0.0876284 -0.380008 0.0
0.0876273 -0.38313 0.0
0.0874071 -0.385149 0.0
0.086403 -0.385868 0.0
0.0837364 -0.385386 0.0
0.0789415 -0.383733 0.0
0.072075 -0.38104 0.0
0.0633716 -0.377716 0.0
0.053291 -0.37421 0.0
0.0419872 -0.370852 0.0
0.0295573 -0.367932 0.0
0.0157837 -0.365794 0.0
8.29503e-17 -1.34384 0.0
1.29454e-16 -1.32812 0.0
1.9635e-16 -1.31235 0.0
3.17377e-16 -1.29194 0.0
5.10126e-16 -1.26099 0.0
6.87848e-16 -1.22034 0.0
7.30904e-16 -1.1889 0.0
7.00091e-16 -1.18269 0.0
7.26097e-16 -1.18059 0.0
7.54338e-16 -1.1561 0.0
6.81854e-16 -1.11575 0.0
5.47311e-16 -1.07376 0.0
4.1764e-16 -1.03832 0.0
3.11991e-16 -1.01748 0.0
2.4219e-16 -1.01144 0.0
2.09455e-16 -1.01322 0.0
1.97541e-16 -1.01722 0.0
2.01121e-16 -1.0173 0.0
2.16277e-16 -1.01018 0.0
2.39175e-16 -0.992071 0.0
2.66219e-16 -0.961002 0.0
2.93204e-16 -0.916587 0.0
3.1618e-16 -0.859809 0.0
3.31711e-16 -0.792927 0.0
3.37339e-16 -0.719083 0.0
3.3199e-16 -0.641818 0.0
3.14717e-16 -0.565181 0.0
2.85321e-16 -0.493713 0.0
2.43936e-16 -0.432533 0.0
1.90179e-16 -0.387668 0.0
1.2779e-16 -0.364437 0.0
1.94413 -1.32467 0.0
1.87429 -1.2984 0.0
1.78674 -1.25589 0.0
1.68647 -1.21594 0.0
1.5777 -1.18848 0.0
1.46408 -1.17905 0.0
1.3487 -1.18988 0.0
1.23433 -1.22011 0.0
1.12787 -1.27667 0.0
1.03299 -1.34122 0.0
0.952767 -1.40599 0.0
0.888104 -1.45992 0.0
0.836935 -1.49184 0.0
0.793947 -1.49276 0.0
0.749865 -1.4562 0.0
0.696547 -1.38704 0.0
0.622873 -1.29102 0.0
0.530248 -1.20296 0.0
0.433077 -1.13837 0.0
0.347775 -1.10134 0.0
0.284887 -1.08903 0.0
0.245336 -1.09275 0.0
0.22241 -1.10296 0.0
0.208986 -1.11394 0.0
0.200391 -1.12636 0.0
0.188897 -1.14063 0.0
0.167121 -1.16064 0.0
0.132031 -1.19033 0.0
0.0877863 -1.23174 0.0
0.043884 -1.28291 0.0
0.013442 -1.334 0.0
2.01006 -1.29744 0.0
2.01865 -1.29492 0.0
2.02677 -1.2918 0.0
2.03455 -1.28815 0.0
2.04209 -1.28404 0.0
2.04958 -1.27948 0.0
2.05711 -1.27449 0.0
2.06502 -1.26895 0.0
2.07342 -1.26291 0.0
2.08237 -1.25601 0.0
2.09167 -1.24797 0.0
2.10112 -1.23851 0.0
2.1105 -1.22736 0.0
2.11956 -1.21437 0.0
2.12807 -1.19965 0.0
2.13564 -1.18355 0.0
2.14137 -1.16742 0.0
2.1452 -1.15208 0.0
2.14717 -1.13898 0.0
2.1473 -1.12876 0.0
2.14574 -1.12161 0.0
2.14287 -1.11719 0.0
2.13925 -1.11484 0.0
2.13555 -1.114 0.0
2.13177 -1.11394 0.0
2.12846 -1.11497 0.0
2.12542 -1.11693 0.0
2.12264 -1.11976 0.0
2.12022 -1.12347 0.0
2.11842 -1.12802 0.0
2.11769 -1.13363 0.0
2.12065 -1.14092 0.0
2.12122 -1.14155 0.0
2.1219 -1.14218 0.0
2.12269 -1.14282 0.0
2.12358 -1.14348 0.0
2.12458 -1.14415 0.0
2.12568 -1.14485 0.0
4.32306 -2.30388 0.0
4.29928 -2.24755 0.0
4.26959 -2.16985 0.0
4.22706 -2.07282 0.0
4.16914 -1.96753 0.0
4.09778 -1.86648 0.0
4.02222 -1.78108 0.0
3.95307 -1.71395 0.0
3.90048 -1.66526 0.0
3.86525 -1.62777 0.0
3.84527 -1.59744 0.0
3.83364 -1.57107 0.0
3.82141 -1.54742 0.0
3.80014 -1.52766 0.0
3.76327 -1.51416 0.0
3.70786 -1.50868 0.0
3.63009 -1.53318 0.0
3.54567 -1.56958 0.0
3.46138 -1.61555 0.0
3.38257 -1.66297 0.0
3.31047 -1.70254 0.0
3.24282 -1.72713 0.0
3.1758 -1.73311 0.0
3.10543 -1.72144 0.0
3.02294 -1.68293 0.0
2.93184 -1.63732 0.0
2.83026 -1.58375 0.0
2.71626 -1.52459 0.0
2.5905 -1.46248 0.0
2.45453 -1.39534 0.0
2.30811 -1.31046 0.0
4.34 0.69079 0.0
4.34 0.631721 0.0
4.34 0.567933 0.0
4.34 0.498983 0.0
4.34 0.425605 0.0
4.34 0.348296 0.0
4.34 0.267991 0.0
4.34 0.185691 0.0
4.34 0.103026 0.0
4.34 0.0212448 0.0
4.34 -0.0581171 0.0
4.34 -0.133769 0.0
4.34 -0.204822 0.0
4.34 -0.271028 0.0
4.34 -0.332974 0.0
4.34 -0.391697 0.0
4.34 -0.45128 0.0
4.34 -0.5135 0.0
4.34 -0.58159 0.0
4.34 -0.657956 0.0
4.34 -0.743727 0.0
4.34 -0.838346 0.0
4.34 -0.939358 0.0
4.34 -1.0425 0.0
4.34 -1.14207 0.0
4.34 -1.23181 0.0
4.34 -1.30692 0.0
4.34 -1.36425 0.0
4.34 -1.40264 0.0
4.34 -1.42303 0.0
4.34 -1.42849 0.0
4.34 -1.42412 0.0
4.34 -1.41739 0.0
4.34 -1.41455 0.0
4.34 -1.42233 0.0
4.34 -1.44679 0.0
4.34 -1.49235 0.0
4.34 -1.56116 0.0
4.34 -1.65173 0.0
4.34 -1.75862 0.0
4.34 -1.87317 0.0
4.34 -1.98131 0.0
4.34 -2.07545 0.0
4.34 -2.15145 0.0
4.34 -2.21098 0.0
4.34 -2.25784 0.0
4.34 -2.29787 0.0
1.83103 -0.236676 0.0
1.87349 -0.207958 0.0
1.91152 -0.208457 0.0
1.9548 -0.233391 0.0
2.00808 -0.274721 0.0
2.07296 -0.323716 0.0
2.14914 -0.371754 0.0
2.2347 -0.413155 0.0
2.32616 -0.436624 0.0
2.42201 -0.446915 0.0
2.5221 -0.441381 0.0
2.62586 -0.420287 0.0
2.73302 -0.383885 0.0
2.84292 -0.332996 0.0
2.95364 -0.267679 0.0
3.06286 -0.189863 0.0
3.16852 -0.101322 0.0
3.26896 -0.00804286 0.0
3.36365 0.0865471 0.0
3.45272 0.17942 0.0
3.53673 0.267992 0.0
3.61656 0.350295 0.0
3.69323 0.425165 0.0
3.76762 0.49184 0.0
3.84058 0.550879 0.0
3.91254 0.601278 0.0
3.98428 0.643997 0.0
4.0556 0.678567 0.0
4.12688 0.705521 0.0
4.19807 0.724978 0.0
4.26928 0.737536 0.0
1.76847 -0.295252 0.0
1.77416 -0.29821 0.0
1.78065 -0.301216 0.0
1.78779 -0.304091 0.0
1.79545 -0.306721 0.0
1.80357 -0.309009 0.0
1.81208 -0.3109 0.0
1.83877 -0.313456 0.0
1.85584 -0.31265 0.0
1.86981 -0.310484 0.0
1.87815 -0.30796 0.0
1.88035 -0.305931 0.0
1.8779 -0.304701 0.0
1.87278 -0.304218 0.0
1.86667 -0.30392 0.0
1.85964 -0.303259 0.0
1.85264 -0.301916 0.0
1.84578 -0.298666 0.0
1.83887 -0.292391 0.0
1.83145 -0.282275 0.0
1.82298 -0.268752 0.0
1.81314 -0.253104 0.0
1.80185 -0.237093 0.0
1.78884 -0.222279 0.0
1.775 -0.209396 0.0
1.76078 -0.198695 0.0
1.74753 -0.190391 0.0
1.73717 -0.184572 0.0
1.73053 -0.180458 0.0
1.72552 -0.176422 0.0
1.71988 -0.171612 0.0
1.71252 -0.166224 0.0
1.70365 -0.160585 0.0
1.69406 -0.155053 0.0
1.68461 -0.149969 0.0
1.67574 -0.145766 0.0
1.66742 -0.142985 0.0
1.65931 -0.142023 0.0
0.880549 0.167637 0.0
0.974283 0.218571 0.0
1.07206 0.222953 0.0
1.17589 0.203928 0.0
1.28181 0.165502 0.0
1.38739 0.10434 0.0
1.50241 0.00791533 0.0
0.757727 0.0518544 0.0
0.756131 0.0511185 0.0
0.754935 0.0501134 0.0
0.753974 0.0488954 0.0
0.753105 0.0475257 0.0
0.752267 0.0460275 0.0
0.751399 0.0444372 0.0
0.747687 0.0387948 0.0
0.74417 0.0347172 0.0
0.740029 0.0306089 0.0
0.735532 0.0265647 0.0
0.730847 0.0227644 0.0
0.72606 0.0194444 0.0
0.721048 0.0167204 0.0
0.715485 0.0148563 0.0
0.708925 0.0137258 0.0
0.701267 0.0131251 0.0
0.692578 0.0126262 0.0
0.682982 0.0117533 0.0
0.672753 0.0101478 0.0
0.662218 0.00772071 0.0
0.6517 0.00442457 0.0
0.641369 0.000424265 0.0
0.631911 -0.00513455 0.0
0.624268 -0.0109756 0.0
0.61841 -0.0170732 0.0
0.614756 -0.0231092 0.0
0.613815 -0.0286553 0.0
0.615777 -0.0334508 0.0
0.620204 -0.0372112 0.0
0.626357 -0.0398285 0.0
0.633448 -0.0410511 0.0
0.640719 -0.0411783 0.0
0.648041 -0.0402424 0.0
0.655371 -0.0382681 0.0
0.66273 -0.0353941 0.0
0.670075 -0.0318249 0.0
0.677138 -0.0278858 0.0
0.101841 0.0048246 0.0
0.201378 0.0162568 0.0
0.296459 0.0331677 0.0
0.384731 0.0518492 0.0
0.464367 0.0668771 0.0
0.534113 0.0704148 0.0
0.600477 0.0475654 0.0
1.39651 -0.310166 0.0
1.39332 -0.311331 0.0
1.38918 -0.313095 0.0
1.38302 -0.315742 0.0
1.37428 -0.319501 0.0
1.36305 -0.324516 0.0
1.34994 -0.330767 0.0
1.33567 -0.338082 0.0
1.32095 -0.34608 0.0
1.30633 -0.354964 0.0
1.29241 -0.364405 0.0
1.27927 -0.37441 0.0
1.26714 -0.384901 0.0
1.25619 -0.395904 0.0
1.24645 -0.407357 0.0
1.23805 -0.419387 0.0
1.23166 -0.431051 0.0
1.22716 -0.442051 0.0
1.22522 -0.451713 0.0
1.22674 -0.459571 0.0
1.23166 -0.465115 0.0
1.23852 -0.468352 0.0
1.24594 -0.469534 0.0
1.25303 -0.469084 0.0
1.25998 -0.467148 0.0
1.26641 -0.463865 0.0
1.27298 -0.459462 0.0
1.28003 -0.454042 0.0
1.28779 -0.447776 0.0
1.29624 -0.440872 0.0
1.30512 -0.433513 0.0
1.31402 -0.425943 0.0
1.32276 -0.418486 0.0
1.33112 -0.411454 0.0
1.33911 -0.404965 0.0
1.34697 -0.399134 0.0
1.35502 -0.393903 0.0
1.3634 -0.389086 0.0
1.37219 -0.384411 0.0
1.38155 -0.379788 0.0
1.39123 -0.374642 0.0
1.40044 -0.36888 0.0
1.40902 -0.362864 0.0
1.41692 -0.356459 0.0
1.42402 -0.349819 0.0
1.43014 -0.343123 0.0
1.4351 -0.336839 0.0
1.43836 -0.331153 0.0
1.43954 -0.326218 0.0
1.4374 -0.321704 0.0
1.43227 -0.317687 0.0
1.42512 -0.314289 0.0
1.41739 -0.311755 0.0
1.4102 -0.31012 0.0
1.4043 -0.309391 0.0
2.52013 -0.651286 0.0
2.52609 -0.655715 0.0
2.53074 -0.659851 0.0
2.53425 -0.663806 0.0
2.53682 -0.667499 0.0
2.53879 -0.670797 0.0
2.54077 -0.67344 0.0
2.54373 -0.674517 0.0
2.54719 -0.674009 0.0
2.55136 -0.669809 0.0
2.55457 -0.660879 0.0
2.55379 -0.64597 0.0
2.5495 -0.629067 0.0
2.54255 -0.610985 0.0
2.53279 -0.592945 0.0
2.52101 -0.576811 0.0
2.50787 -0.562954 0.0
2.49438 -0.551671 0.0
2.48086 -0.542483 0.0
2.4677 -0.534879 0.0
2.4554 -0.528399 0.0
2.44429 -0.522724 0.0
2.43422 -0.517747 0.0
2.42449 -0.51338 0.0
2.41451 -0.50958 0.0
2.40274 -0.506511 0.0
2.38891 -0.504375 0.0
2.37332 -0.503337 0.0
2.3569 -0.503589 0.0
2.34131 -0.505229 0.0
2.32849 -0.508132 0.0
2.32055 -0.511788 0.0
2.31693 -0.515813 0.0
2.31787 -0.519723 0.0
2.32127 -0.523779 0.0
2.32615 -0.528307 0.0
2.3319 -0.533548 0.0
2.33825 -0.539634 0.0
2.34512 -0.546532 0.0
2.35258 -0.55403 0.0
2.36083 -0.561725 0.0
2.36971 -0.569394 0.0
2.37927 -0.576708 0.0
2.38937 -0.58344 0.0
2.39985 -0.589617 0.0
2.41062 -0.595376 0.0
2.42161 -0.600852 0.0
2.43253 -0.605913 0.0
2.44354 -0.611062 0.0
2.4545 -0.616228 0.0
2.46538 -0.621444 0.0
2.47601 -0.626642 0.0
2.48628 -0.631764 0.0
2.49602 -0.636775 0.0
2.50499 -0.641629 0.0
2.19053 -0.705572 0.0
2.1993 -0.705979 0.0
2.20472 -0.706253 0.0
2.20706 -0.706527 0.0
2.2069 -0.70684 0.0
2.20499 -0.707212 0.0
2.20197 -0.707569 0.0
2.19861 -0.707461 0.0
2.1953 -0.706773 0.0
2.19233 -0.704309 0.0
2.18956 -0.698915 0.0
2.18654 -0.690014 0.0
2.18274 -0.677845 0.0
2.17772 -0.66347 0.0
2.1713 -0.648244 0.0
2.1634 -0.633439 0.0
2.15448 -0.620287 0.0
2.14468 -0.608408 0.0
2.13401 -0.597684 0.0
2.1225 -0.587913 0.0
2.11022 -0.57883 0.0
2.09727 -0.570314 0.0
2.08373 -0.562346 0.0
2.07 -0.555082 0.0
2.05596 -0.548708 0.0
2.04165 -0.543582 0.0
2.02721 -0.539904 0.0
2.01262 -0.537706 0.0
1.99825 -0.536911 0.0
1.98486 -0.537267 0.0
1.9738 -0.538371 0.0
1.96655 -0.539789 0.0
1.96313 -0.541327 0.0
1.9635 -0.54249 0.0
1.96632 -0.54348 0.0
1.97067 -0.544457 0.0
1.97579 -0.545731 0.0
1.98122 -0.547821 0.0
1.98675 -0.5517 0.0
1.99248 -0.558808 0.0
1.99871 -0.568118 0.0
2.00588 -0.580737 0.0
2.01446 -0.595561 0.0
2.02441 -0.611234 0.0
2.03563 -0.626554 0.0
2.04796 -0.640692 0.0
2.06114 -0.653294 0.0
2.07477 -0.664363 0.0
2.08844 -0.674077 0.0
2.10137 -0.682131 0.0
2.1136 -0.688631 0.0
2.12559 -0.693767 0.0
2.13829 -0.697832 0.0
2.15175 -0.700912 0.0
2.16567 -0.703106 0.0
3.07417 -1.05281 0.0
3.08909 -1.05264 0.0
3.10191 -1.05075 0.0
3.11266 -1.04734 0.0
3.12134 -1.04258 0.0
3.12797 -1.03657 0.0
3.13255 -1.02941 0.0
3.13531 -1.02074 0.0
3.1359 -1.01066 0.0
3.13484 -0.99849 0.0
3.13225 -0.983528 0.0
3.12799 -0.965444 0.0
3.12191 -0.94418 0.0
3.11389 -0.920413 0.0
3.10389 -0.895198 0.0
3.09195 -0.869963 0.0
3.07808 -0.845862 0.0
3.06282 -0.823625 0.0
3.04647 -0.803657 0.0
3.02936 -0.785985 0.0
3.01175 -0.77059 0.0
2.99371 -0.757392 0.0
2.97514 -0.746251 0.0
2.95609 -0.737142 0.0
2.93566 -0.729585 0.0
2.91418 -0.723815 0.0
2.89221 -0.719659 0.0
2.87084 -0.717051 0.0
2.8512 -0.715853 0.0
2.8343 -0.716001 0.0
2.8206 -0.717341 0.0
2.80995 -0.719591 0.0
2.8011 -0.722813 0.0
2.79388 -0.726819 0.0
2.78746 -0.731723 0.0
2.78135 -0.737601 0.0
2.7752 -0.745087 0.0
2.76942 -0.75533 0.0
2.76522 -0.769863 0.0
2.76467 -0.789337 0.0
2.76857 -0.812752 0.0
2.77641 -0.838951 0.0
2.78754 -0.865388 0.0
2.80154 -0.890642 0.0
2.81807 -0.914108 0.0
2.83678 -0.935564 0.0
2.85738 -0.955125 0.0
2.8793 -0.972688 0.0
2.90241 -0.988769 0.0
2.92606 -1.00302 0.0
2.94982 -1.01553 0.0
2.97334 -1.02627 0.0
2.99623 -1.03521 0.0
3.01808 -1.04228 0.0
3.03852 -1.04749 0.0
0.822263 -0.679952 0.0
0.816365 -0.683687 0.0
0.81084 -0.687088 0.0
0.805717 -0.690219 0.0
0.800676 -0.693103 0.0
0.794836 -0.695999 0.0
0.787359 -0.699201 0.0
0.777331 -0.70348 0.0
0.765603 -0.708508 0.0
0.752196 -0.716036 0.0
0.73806 -0.726834 0.0
0.723891 -0.741486 0.0
0.710554 -0.759732 0.0
0.699166 -0.780072 0.0
0.690796 -0.799948 0.0
0.686132 -0.815801 0.0
0.685076 -0.826849 0.0
0.685638 -0.832006 0.0
0.686021 -0.832682 0.0
0.685826 -0.830868 0.0
0.685132 -0.827879 0.0
0.684349 -0.824584 0.0
0.683897 -0.82119 0.0
0.684358 -0.817819 0.0
0.685468 -0.814259 0.0
0.687653 -0.810468 0.0
0.690953 -0.806236 0.0
0.695358 -0.801504 0.0
0.700667 -0.79638 0.0
0.706564 -0.790946 0.0
0.71262 -0.785342 0.0
0.718157 -0.77987 0.0
0.723593 -0.7749 0.0
0.728717 -0.77066 0.0
0.734235 -0.767379 0.0
0.74122 -0.764921 0.0
0.750466 -0.762945 0.0
0.762109 -0.760764 0.0
0.775726 -0.757882 0.0
0.790885 -0.753844 0.0
0.806701 -0.748494 0.0
0.822197 -0.741302 0.0
0.836737 -0.732645 0.0
0.849961 -0.722204 0.0
0.861272 -0.710272 0.0
0.870002 -0.697582 0.0
0.875043 -0.68529 0.0
0.875131 -0.675347 0.0
0.870429 -0.668237 0.0
0.863327 -0.664269 0.0
0.856503 -0.662938 0.0
0.850529 -0.663597 0.0
0.845189 -0.665642 0.0
0.840006 -0.668501 0.0
0.834483 -0.671957 0.0
0.411223 -0.980789 0.0
0.387924 -0.985816 0.0
0.364568 -0.992209 0.0
0.342039 -0.999776 0.0
0.320851 -1.00826 0.0
0.301398 -1.01744 0.0
0.283794 -1.02723 0.0
0.267487 -1.03795 0.0
0.250932 -1.04715 0.0
0.236408 -1.0596 0.0
0.22455 -1.07288 0.0
0.215397 -1.08669 0.0
0.208703 -1.10009 0.0
0.203895 -1.11256 0.0
0.200399 -1.12399 0.0
0.197503 -1.13458 0.0
0.195583 -1.1445 0.0
0.194125 -1.15303 0.0
0.192876 -1.16041 0.0
0.191514 -1.1666 0.0
0.189358 -1.17136 0.0
0.185791 -1.17464 0.0
0.18029 -1.17643 0.0
0.172571 -1.17737 0.0
0.160902 -1.17924 0.0
0.159398 -1.18122 0.0
0.165386 -1.18368 0.0
0.172725 -1.18592 0.0
0.184297 -1.18759 0.0
0.20253 -1.18737 0.0
0.225474 -1.18358 0.0
0.246801 -1.17623 0.0
0.276989 -1.1675 0.0
0.304129 -1.1572 0.0
0.328955 -1.14487 0.0
0.351619 -1.13076 0.0
0.372232 -1.11493 0.0
0.390856 -1.09743 0.0
0.407532 -1.07832 0.0
0.422202 -1.05789 0.0
0.434226 -1.03623 0.0
0.443513 -1.01481 0.0
0.449984 -0.995196 0.0
0.453721 -0.979178 0.0
0.455248 -0.968372 0.0
0.456039 -0.96307 0.0
0.457523 -0.961961 0.0
0.460509 -0.962989 0.0
0.463965 -0.964382 0.0
0.467989 -0.966421 0.0
0.471236 -0.968255 0.0
0.472481 -0.969836 0.0
0.470255 -0.971287 0.0
0.463128 -0.972728 0.0
0.45046 -0.974386 0.0
1.58697 -1.02887 0.0
1.5785 -1.03022 0.0
1.56956 -1.03144 0.0
1.5617 -1.03233 0.0
1.5551 -1.03302 0.0
1.54929 -1.03367 0.0
1.54346 -1.03434 0.0
1.53709 -1.03468 0.0
1.52981 -1.03502 0.0
1.52197 -1.03473 0.0
1.51376 -1.03356 0.0
1.50525 -1.03152 0.0
1.49646 -1.02879 0.0
1.48737 -1.02549 0.0
1.47789 -1.0217 0.0
1.46776 -1.01742 0.0
1.45711 -1.01298 0.0
1.44557 -1.00775 0.0
1.43298 -1.00177 0.0
1.41924 -0.995018 0.0
1.40442 -0.98763 0.0
1.38896 -0.979944 0.0
1.37353 -0.972362 0.0
1.35937 -0.965359 0.0
1.34705 -0.959268 0.0
1.339 -0.954781 0.0
1.33563 -0.951575 0.0
1.33634 -0.949504 0.0
1.33969 -0.948402 0.0
1.34392 -0.947961 0.0
1.34784 -0.948018 0.0
1.35065 -0.948567 0.0
1.35316 -0.94943 0.0
1.35595 -0.9504 0.0
1.35967 -0.951543 0.0
1.36475 -0.952849 0.0
1.37112 -0.954421 0.0
1.37852 -0.956283 0.0
1.38673 -0.958581 0.0
1.39568 -0.961556 0.0
1.40509 -0.96428 0.0
1.41474 -0.967298 0.0
1.42463 -0.970636 0.0
1.43483 -0.974253 0.0
1.44543 -0.978202 0.0
1.45668 -0.982542 0.0
1.46885 -0.987363 0.0
1.48227 -0.992591 0.0
1.49701 -0.997786 0.0
1.51367 -1.00373 0.0
1.53183 -1.00977 0.0
1.55076 -1.01545 0.0
1.56878 -1.02031 0.0
1.58318 -1.02399 0.0
1.59134 -1.02626 0.0
2.47575 -0.961538 0.0
2.48274 -0.961804 0.0
2.48604 -0.962219 0.0
2.48481 -0.963046 0.0
2.47924 -0.964413 0.0
2.47024 -0.966229 0.0
2.45885 -0.968247 0.0
2.44611 -0.969638 0.0
2.43258 -0.971082 0.0
2.41896 -0.97264 0.0
2.40568 -0.974133 0.0
2.39284 -0.976014 0.0
2.38065 -0.978745 0.0
2.3693 -0.982879 0.0
2.35903 -0.988241 0.0
2.35008 -0.993724 0.0
2.34336 -0.998022 0.0
2.33779 -0.998957 0.0
2.3311 -0.995046 0.0
2.32166 -0.987177 0.0
2.30917 -0.977495 0.0
2.29439 -0.967897 0.0
2.27816 -0.959295 0.0
2.26197 -0.952199 0.0
2.24637 -0.94687 0.0
2.23492 -0.943064 0.0
2.22995 -0.940213 0.0
2.23259 -0.937764 0.0
2.24169 -0.935086 0.0
2.25481 -0.931671 0.0
2.26959 -0.927315 0.0
2.28422 -0.922062 0.0
2.29767 -0.9161 0.0
2.3099 -0.909662 0.0
2.32061 -0.903152 0.0
2.32986 -0.896921 0.0
2.33756 -0.891772 0.0
2.34386 -0.888576 0.0
2.34893 -0.888318 0.0
2.35347 -0.891621 0.0
2.35874 -0.897388 0.0
2.36473 -0.905342 0.0
2.37169 -0.913994 0.0
2.37938 -0.922183 0.0
2.38757 -0.929339 0.0
2.39596 -0.935256 0.0
2.4042 -0.940063 0.0
2.41149 -0.94368 0.0
2.41832 -0.947202 0.0
2.42419 -0.950161 0.0
2.42946 -0.952661 0.0
2.43472 -0.954781 0.0
2.44078 -0.95666 0.0
2.44815 -0.958362 0.0
2.45694 -0.959864 0.0
3.71815 -1.76831 0.0
3.73555 -1.76781 0.0
3.75082 -1.76462 0.0
3.76445 -1.75861 0.0
3.77684 -1.74966 0.0
3.7884 -1.73765 0.0
3.79902 -1.72268 0.0
3.80857 -1.70498 0.0
3.81628 -1.68503 0.0
3.82179 -1.66361 0.0
3.82484 -1.64111 0.0
3.82543 -1.61775 0.0
3.82373 -1.59344 0.0
3.81944 -1.56821 0.0
3.81235 -1.54243 0.0
3.80175 -1.51668 0.0
3.78796 -1.49075 0.0
3.77123 -1.46589 0.0
3.75196 -1.4426 0.0
3.73031 -1.42082 0.0
3.70626 -1.40033 0.0
3.67991 -1.3813 0.0
3.65148 -1.36395 0.0
3.62175 -1.34881 0.0
3.59039 -1.33582 0.0
3.55789 -1.32576 0.0
3.52492 -1.31879 0.0
3.49238 -1.31489 0.0
3.46155 -1.31392 0.0
3.43397 -1.31554 0.0
3.41098 -1.31941 0.0
3.39334 -1.3251 0.0
3.37984 -1.33282 0.0
3.37052 -1.34211 0.0
3.36411 -1.35301 0.0
3.36017 -1.3655 0.0
3.35829 -1.37974 0.0
3.35826 -1.39602 0.0
3.36009 -1.41497 0.0
3.36401 -1.43767 0.0
3.37018 -1.46241 0.0
3.37867 -1.49002 0.0
3.38983 -1.51947 0.0
3.40377 -1.5496 0.0
3.4205 -1.57941 0.0
3.43995 -1.60794 0.0
3.46199 -1.63474 0.0
3.48609 -1.65886 0.0
3.5113 -1.68064 0.0
3.53827 -1.70041 0.0
3.56627 -1.71773 0.0
3.5947 -1.73244 0.0
3.62287 -1.74464 0.0
3.64998 -1.75436 0.0
3.67527 -1.76156 0.0
0.688258 -0.0191216 0.0
0.69313 -0.0125742 0.0
0.697569 -0.00570398 0.0
0.70163 0.00102673 0.0
0.705424 0.0073519 0.0
0.709075 0.0131166 0.0
0.712707 0.0182437 0.0
0.716444 0.0227211 0.0
0.720344 0.026583 0.0
0.724552 0.0298988 0.0
0.729155 0.0327969 0.0
0.734228 0.0354742 0.0
0.739812 0.038167 0.0
0.745955 0.0411917 0.0
0.752759 0.0451237 0.0
5.45748e-16 -0.362267 0.0
4.73455e-16 -0.360675 0.0
4.2977e-16 -0.359668 0.0
3.95844e-16 -0.35892 0.0
3.72193e-16 -0.358381 0.0
3.5528e-16 -0.357955 0.0
3.45064e-16 -0.357583 0.0
3.40772e-16 -0.357204 0.0
3.42576e-16 -0.356775 0.0
3.50124e-16 -0.356244 0.0
3.63547e-16 -0.35556 0.0
3.82759e-16 -0.354674 0.0
4.08411e-16 -0.353547 0.0
4.42112e-16 -0.352149 0.0
4.91547e-16 -0.350464 0.0
1.65936 -0.156874 0.0
1.66834 -0.167342 0.0
1.67691 -0.176781 0.0
1.68511 -0.185717 0.0
1.69306 -0.194423 0.0
1.70083 -0.203025 0.0
1.70845 -0.211576 0.0
1.71593 -0.220093 0.0
1.72322 -0.228568 0.0
1.73024 -0.237044 0.0
1.73687 -0.2456 0.0
1.74302 -0.254363 0.0
1.74865 -0.26349 0.0
1.75381 -0.273107 0.0
1.7587 -0.283119 0.0
2.11228 -1.13497 0.0
2.09862 -1.13498 0.0
2.08592 -1.13938 0.0
2.07399 -1.14671 0.0
2.06295 -1.15628 0.0
2.05287 -1.16769 0.0
2.04393 -1.18044 0.0
2.03613 -1.19412 0.0
2.02922 -1.20859 0.0
2.02349 -1.22288 0.0
2.0187 -1.23677 0.0
2.01463 -1.25001 0.0